<?xml version="1.0" encoding="UTF-8"?>

<!-- generated on 2025-02-11 10:52:51 by Eclipse SUMO GUI Version 1.18.0
<configuration xmlns:xsi="http://www.w3.org/2001/XMLSchema-instance" xsi:noNamespaceSchemaLocation="http://sumo.dlr.de/xsd/sumoConfiguration.xsd">

    <input>
        <net-file value="E:\RL_TSP\envs\5x5\5x5.net.xml"/>
        <route-files value="E:\RL_TSP\envs\5x5\Demand_20.rou.xml"/>
    </input>

    <output>
        <tripinfo-output value="E:\RL_TSP\envs\5x5\tripinfo_5x5.xml"/>
    </output>

    <time>
        <begin value="0"/>
    </time>

    <processing>
        <time-to-teleport value="-1"/>
    </processing>

</configuration>
-->

<tripinfos xmlns:xsi="http://www.w3.org/2001/XMLSchema-instance" xsi:noNamespaceSchemaLocation="http://sumo.dlr.de/xsd/tripinfo_file.xsd">
    <tripinfo id="OD336_NV.0" depart="11.00" departLane="top0A4_0" departPos="5.10" departSpeed="10.00" departDelay="1.17" arrival="57.00" arrivalLane="A4left4_0" arrivalPos="286.40" arrivalSpeed="13.07" duration="46.00" routeLength="576.73" waitingTime="0.00" waitingCount="0" stopTime="0.00" timeLoss="3.88" rerouteNo="0" devices="tripinfo_OD336_NV.0" vType="NV" speedFactor="1.00" vaporized=""/>
    <tripinfo id="OD248_NV.0" depart="5.00" departLane="right3E3_0" departPos="5.10" departSpeed="10.00" departDelay="0.79" arrival="75.00" arrivalLane="E4right4_0" arrivalPos="286.40" arrivalSpeed="13.61" duration="70.00" routeLength="858.56" waitingTime="0.00" waitingCount="0" stopTime="0.00" timeLoss="6.69" rerouteNo="0" devices="tripinfo_OD248_NV.0" vType="NV" speedFactor="1.00" vaporized=""/>
    <tripinfo id="OD58_RV.0" depart="38.00" departLane="top4E4_0" departPos="5.10" departSpeed="10.00" departDelay="0.89" arrival="84.00" arrivalLane="E4right4_2" arrivalPos="286.40" arrivalSpeed="13.00" duration="46.00" routeLength="592.21" waitingTime="0.00" waitingCount="0" stopTime="0.00" timeLoss="2.64" rerouteNo="0" devices="tripinfo_OD58_RV.0" vType="RV" speedFactor="1.00" vaporized=""/>
    <tripinfo id="OD105_NV.0" depart="28.00" departLane="right1E1_0" departPos="5.10" departSpeed="10.00" departDelay="0.13" arrival="99.00" arrivalLane="E2right2_0" arrivalPos="286.40" arrivalSpeed="12.97" duration="71.00" routeLength="858.56" waitingTime="0.00" waitingCount="0" stopTime="0.00" timeLoss="7.49" rerouteNo="0" devices="tripinfo_OD105_NV.0" vType="NV" speedFactor="1.00" vaporized=""/>
    <tripinfo id="OD250_NV.0" depart="43.00" departLane="right3E3_0" departPos="5.10" departSpeed="10.00" departDelay="0.06" arrival="112.00" arrivalLane="E4top4_1" arrivalPos="286.40" arrivalSpeed="13.64" duration="69.00" routeLength="876.73" waitingTime="0.00" waitingCount="0" stopTime="0.00" timeLoss="5.32" rerouteNo="0" devices="tripinfo_OD250_NV.0" vType="NV" speedFactor="1.00" vaporized=""/>
    <tripinfo id="OD336_NV.1" depart="68.00" departLane="top0A4_0" departPos="5.10" departSpeed="10.00" departDelay="1.20" arrival="115.00" arrivalLane="A4left4_0" arrivalPos="286.40" arrivalSpeed="12.59" duration="47.00" routeLength="576.73" waitingTime="0.00" waitingCount="0" stopTime="0.00" timeLoss="4.85" rerouteNo="0" devices="tripinfo_OD336_NV.1" vType="NV" speedFactor="1.00" vaporized=""/>
    <tripinfo id="OD249_NV.0" depart="24.00" departLane="right3E3_0" departPos="5.10" departSpeed="10.00" departDelay="0.41" arrival="118.00" arrivalLane="D4top3_0" arrivalPos="286.40" arrivalSpeed="13.56" duration="94.00" routeLength="1155.87" waitingTime="0.00" waitingCount="0" stopTime="0.00" timeLoss="9.18" rerouteNo="0" devices="tripinfo_OD249_NV.0" vType="NV" speedFactor="1.00" vaporized=""/>
    <tripinfo id="OD201_NV.0" depart="54.00" departLane="top3D4_0" departPos="5.10" departSpeed="10.00" departDelay="0.10" arrival="124.00" arrivalLane="C4top2_0" arrivalPos="286.40" arrivalSpeed="12.67" duration="70.00" routeLength="858.56" waitingTime="0.00" waitingCount="0" stopTime="0.00" timeLoss="7.02" rerouteNo="0" devices="tripinfo_OD201_NV.0" vType="NV" speedFactor="1.00" vaporized=""/>
    <tripinfo id="OD27_NV.0" depart="2.00" departLane="bottom4E0_0" departPos="5.10" departSpeed="10.00" departDelay="0.73" arrival="125.00" arrivalLane="E1right1_0" arrivalPos="286.40" arrivalSpeed="13.40" duration="123.00" routeLength="876.73" waitingTime="48.00" waitingCount="1" stopTime="0.00" timeLoss="58.55" rerouteNo="0" devices="tripinfo_OD27_NV.0" vType="NV" speedFactor="1.00" vaporized=""/>
    <tripinfo id="OD377_NV.0" depart="54.00" departLane="left4A4_0" departPos="5.10" departSpeed="10.00" departDelay="0.77" arrival="125.00" arrivalLane="A3left3_0" arrivalPos="286.40" arrivalSpeed="13.34" duration="71.00" routeLength="858.56" waitingTime="0.00" waitingCount="0" stopTime="0.00" timeLoss="7.58" rerouteNo="0" devices="tripinfo_OD377_NV.0" vType="NV" speedFactor="1.00" vaporized=""/>
    <tripinfo id="OD169_NV.0" depart="55.00" departLane="bottom2C0_0" departPos="5.10" departSpeed="10.00" departDelay="0.15" arrival="125.00" arrivalLane="D0bottom3_0" arrivalPos="286.40" arrivalSpeed="13.45" duration="70.00" routeLength="858.56" waitingTime="0.00" waitingCount="0" stopTime="0.00" timeLoss="6.31" rerouteNo="0" devices="tripinfo_OD169_NV.0" vType="NV" speedFactor="1.00" vaporized=""/>
    <tripinfo id="OD177_NV.0" depart="5.00" departLane="right0E0_0" departPos="5.10" departSpeed="10.00" departDelay="0.01" arrival="126.00" arrivalLane="E0bottom4_2" arrivalPos="286.40" arrivalSpeed="13.42" duration="121.00" routeLength="592.21" waitingTime="70.00" waitingCount="1" stopTime="0.00" timeLoss="77.32" rerouteNo="0" devices="tripinfo_OD177_NV.0" vType="NV" speedFactor="1.00" vaporized=""/>
    <tripinfo id="OD271_NV.0" depart="6.00" departLane="bottom3D0_0" departPos="5.10" departSpeed="10.00" departDelay="0.89" arrival="126.00" arrivalLane="C0bottom2_2" arrivalPos="286.40" arrivalSpeed="13.42" duration="120.00" routeLength="889.52" waitingTime="41.00" waitingCount="2" stopTime="0.00" timeLoss="54.54" rerouteNo="0" devices="tripinfo_OD271_NV.0" vType="NV" speedFactor="1.00" vaporized=""/>
    <tripinfo id="OD228_NV.0" depart="55.00" departLane="top2C4_0" departPos="5.10" departSpeed="10.00" departDelay="0.26" arrival="126.00" arrivalLane="B4top1_0" arrivalPos="286.40" arrivalSpeed="13.09" duration="71.00" routeLength="858.56" waitingTime="0.00" waitingCount="0" stopTime="0.00" timeLoss="7.65" rerouteNo="0" devices="tripinfo_OD228_NV.0" vType="NV" speedFactor="1.00" vaporized=""/>
    <tripinfo id="OD271_NV.1" depart="13.00" departLane="bottom3D0_0" departPos="5.10" departSpeed="10.00" departDelay="0.75" arrival="128.00" arrivalLane="C0bottom2_2" arrivalPos="286.40" arrivalSpeed="12.75" duration="115.00" routeLength="889.52" waitingTime="35.00" waitingCount="2" stopTime="0.00" timeLoss="49.23" rerouteNo="0" devices="tripinfo_OD271_NV.1" vType="NV" speedFactor="1.00" vaporized=""/>
    <tripinfo id="OD111_NV.0" depart="34.00" departLane="right1E1_0" departPos="5.10" departSpeed="10.00" departDelay="0.70" arrival="128.00" arrivalLane="E3right3_0" arrivalPos="286.40" arrivalSpeed="13.08" duration="94.00" routeLength="1158.56" waitingTime="0.00" waitingCount="0" stopTime="0.00" timeLoss="8.75" rerouteNo="0" devices="tripinfo_OD111_NV.0" vType="NV" speedFactor="1.00" vaporized=""/>
    <tripinfo id="OD339_NV.0" depart="13.00" departLane="top0A4_0" departPos="5.10" departSpeed="10.00" departDelay="1.06" arrival="129.00" arrivalLane="A3left3_0" arrivalPos="286.40" arrivalSpeed="12.70" duration="116.00" routeLength="876.73" waitingTime="41.00" waitingCount="1" stopTime="0.00" timeLoss="51.34" rerouteNo="0" devices="tripinfo_OD339_NV.0" vType="NV" speedFactor="1.00" vaporized=""/>
    <tripinfo id="OD271_NV.2" depart="23.00" departLane="bottom3D0_0" departPos="5.10" departSpeed="10.00" departDelay="0.67" arrival="130.00" arrivalLane="C0bottom2_2" arrivalPos="286.40" arrivalSpeed="12.96" duration="107.00" routeLength="889.52" waitingTime="23.00" waitingCount="2" stopTime="0.00" timeLoss="41.11" rerouteNo="0" devices="tripinfo_OD271_NV.2" vType="NV" speedFactor="1.00" vaporized=""/>
    <tripinfo id="OD51_NV.0" depart="64.00" departLane="left3A3_0" departPos="5.10" departSpeed="10.00" departDelay="0.00" arrival="135.00" arrivalLane="A2left2_0" arrivalPos="286.40" arrivalSpeed="12.93" duration="71.00" routeLength="858.56" waitingTime="0.00" waitingCount="0" stopTime="0.00" timeLoss="7.31" rerouteNo="0" devices="tripinfo_OD51_NV.0" vType="NV" speedFactor="1.00" vaporized=""/>
    <tripinfo id="OD59_NV.0" depart="65.00" departLane="top4E4_0" departPos="5.10" departSpeed="10.00" departDelay="0.66" arrival="136.00" arrivalLane="D4top3_0" arrivalPos="286.40" arrivalSpeed="13.84" duration="71.00" routeLength="858.56" waitingTime="0.00" waitingCount="0" stopTime="0.00" timeLoss="7.72" rerouteNo="0" devices="tripinfo_OD59_NV.0" vType="NV" speedFactor="1.00" vaporized=""/>
    <tripinfo id="OD177_RV.0" depart="96.00" departLane="right0E0_0" departPos="5.10" departSpeed="10.00" departDelay="0.72" arrival="143.00" arrivalLane="E0bottom4_2" arrivalPos="286.40" arrivalSpeed="12.81" duration="47.00" routeLength="592.21" waitingTime="0.00" waitingCount="0" stopTime="0.00" timeLoss="3.09" rerouteNo="0" devices="tripinfo_OD177_RV.0" vType="RV" speedFactor="1.00" vaporized=""/>
    <tripinfo id="OD275_NV.0" depart="10.00" departLane="bottom3D0_0" departPos="5.10" departSpeed="10.00" departDelay="0.48" arrival="149.00" arrivalLane="E1right1_1" arrivalPos="286.40" arrivalSpeed="13.02" duration="139.00" routeLength="1176.73" waitingTime="40.00" waitingCount="1" stopTime="0.00" timeLoss="53.62" rerouteNo="0" devices="tripinfo_OD275_NV.0" vType="NV" speedFactor="1.00" vaporized=""/>
    <tripinfo id="OD15_NV.0" depart="59.00" departLane="top1B4_0" departPos="5.10" departSpeed="10.00" departDelay="0.97" arrival="152.00" arrivalLane="A3left3_1" arrivalPos="286.40" arrivalSpeed="13.53" duration="93.00" routeLength="1176.73" waitingTime="0.00" waitingCount="0" stopTime="0.00" timeLoss="7.00" rerouteNo="0" devices="tripinfo_OD15_NV.0" vType="NV" speedFactor="1.00" vaporized=""/>
    <tripinfo id="OD284_NV.0" depart="89.00" departLane="bottom3D0_0" departPos="5.10" departSpeed="10.00" departDelay="0.00" arrival="158.00" arrivalLane="E0right0_1" arrivalPos="286.40" arrivalSpeed="13.71" duration="69.00" routeLength="876.73" waitingTime="0.00" waitingCount="0" stopTime="0.00" timeLoss="5.34" rerouteNo="0" devices="tripinfo_OD284_NV.0" vType="NV" speedFactor="1.00" vaporized=""/>
    <tripinfo id="OD284_NV.1" depart="92.00" departLane="bottom3D0_0" departPos="5.10" departSpeed="10.00" departDelay="0.32" arrival="162.00" arrivalLane="E0right0_1" arrivalPos="286.40" arrivalSpeed="12.53" duration="70.00" routeLength="876.73" waitingTime="0.00" waitingCount="0" stopTime="0.00" timeLoss="5.71" rerouteNo="0" devices="tripinfo_OD284_NV.1" vType="NV" speedFactor="1.00" vaporized=""/>
    <tripinfo id="OD295_RV.0" depart="98.00" departLane="bottom0A0_0" departPos="5.10" departSpeed="10.00" departDelay="0.65" arrival="169.00" arrivalLane="B0bottom1_0" arrivalPos="286.40" arrivalSpeed="12.47" duration="71.00" routeLength="858.56" waitingTime="0.00" waitingCount="0" stopTime="0.00" timeLoss="7.48" rerouteNo="0" devices="tripinfo_OD295_RV.0" vType="RV" speedFactor="1.00" vaporized=""/>
    <tripinfo id="OD37_RV.0" depart="122.00" departLane="bottom4E0_0" departPos="5.10" departSpeed="10.00" departDelay="0.30" arrival="169.00" arrivalLane="E0right0_0" arrivalPos="286.40" arrivalSpeed="13.27" duration="47.00" routeLength="576.73" waitingTime="0.00" waitingCount="0" stopTime="0.00" timeLoss="4.22" rerouteNo="0" devices="tripinfo_OD37_RV.0" vType="RV" speedFactor="1.00" vaporized=""/>
    <tripinfo id="OD37_RV.1" depart="127.00" departLane="bottom4E0_0" departPos="5.10" departSpeed="10.00" departDelay="0.49" arrival="174.00" arrivalLane="E0right0_0" arrivalPos="286.40" arrivalSpeed="13.69" duration="47.00" routeLength="576.73" waitingTime="0.00" waitingCount="0" stopTime="0.00" timeLoss="4.20" rerouteNo="0" devices="tripinfo_OD37_RV.1" vType="RV" speedFactor="1.00" vaporized=""/>
    <tripinfo id="OD226_NV.0" depart="7.00" departLane="bottom1B0_0" departPos="5.10" departSpeed="10.00" departDelay="0.60" arrival="175.00" arrivalLane="D0bottom3_0" arrivalPos="286.40" arrivalSpeed="13.35" duration="168.00" routeLength="1158.56" waitingTime="70.00" waitingCount="1" stopTime="0.00" timeLoss="82.31" rerouteNo="0" devices="tripinfo_OD226_NV.0" vType="NV" speedFactor="1.00" vaporized=""/>
    <tripinfo id="OD290_NV.0" depart="17.00" departLane="bottom0A0_0" departPos="5.10" departSpeed="10.00" departDelay="0.06" arrival="175.00" arrivalLane="C0bottom2_0" arrivalPos="286.40" arrivalSpeed="13.33" duration="158.00" routeLength="1158.56" waitingTime="59.00" waitingCount="1" stopTime="0.00" timeLoss="73.11" rerouteNo="0" devices="tripinfo_OD290_NV.0" vType="NV" speedFactor="1.00" vaporized=""/>
    <tripinfo id="OD353_NV.0" depart="18.00" departLane="right2E2_0" departPos="5.10" departSpeed="10.00" departDelay="0.22" arrival="175.00" arrivalLane="E2right2_2" arrivalPos="286.40" arrivalSpeed="12.75" duration="157.00" routeLength="1737.70" waitingTime="12.00" waitingCount="1" stopTime="0.00" timeLoss="28.75" rerouteNo="0" devices="tripinfo_OD353_NV.0" vType="NV" speedFactor="1.00" vaporized=""/>
    <tripinfo id="OD130_NV.0" depart="27.00" departLane="right4E4_0" departPos="5.10" departSpeed="10.00" departDelay="0.57" arrival="175.00" arrivalLane="E3right3_2" arrivalPos="286.40" arrivalSpeed="12.92" duration="148.00" routeLength="889.52" waitingTime="69.00" waitingCount="2" stopTime="0.00" timeLoss="83.04" rerouteNo="0" devices="tripinfo_OD130_NV.0" vType="NV" speedFactor="1.00" vaporized=""/>
    <tripinfo id="OD351_NV.0" depart="6.00" departLane="right2E2_0" departPos="5.10" departSpeed="10.00" departDelay="0.30" arrival="176.00" arrivalLane="E1right1_2" arrivalPos="286.40" arrivalSpeed="12.79" duration="170.00" routeLength="889.52" waitingTime="92.00" waitingCount="2" stopTime="0.00" timeLoss="104.17" rerouteNo="0" devices="tripinfo_OD351_NV.0" vType="NV" speedFactor="1.00" vaporized=""/>
    <tripinfo id="OD50_RV.0" depart="7.00" departLane="left3A3_0" departPos="5.10" departSpeed="10.00" departDelay="0.45" arrival="176.00" arrivalLane="A4left4_2" arrivalPos="286.40" arrivalSpeed="13.86" duration="169.00" routeLength="889.52" waitingTime="91.00" waitingCount="2" stopTime="0.00" timeLoss="103.24" rerouteNo="0" devices="tripinfo_OD50_RV.0" vType="RV" speedFactor="1.00" vaporized=""/>
    <tripinfo id="OD216_NV.0" depart="16.00" departLane="bottom1B0_0" departPos="5.10" departSpeed="10.00" departDelay="0.58" arrival="176.00" arrivalLane="A1left1_2" arrivalPos="286.40" arrivalSpeed="13.46" duration="160.00" routeLength="1171.35" waitingTime="58.00" waitingCount="2" stopTime="0.00" timeLoss="73.34" rerouteNo="0" devices="tripinfo_OD216_NV.0" vType="NV" speedFactor="1.00" vaporized=""/>
    <tripinfo id="OD236_NV.0" depart="30.00" departLane="top2C4_0" departPos="5.10" departSpeed="10.00" departDelay="0.81" arrival="176.00" arrivalLane="A4top0_0" arrivalPos="286.40" arrivalSpeed="13.30" duration="146.00" routeLength="1158.56" waitingTime="47.00" waitingCount="1" stopTime="0.00" timeLoss="60.22" rerouteNo="0" devices="tripinfo_OD236_NV.0" vType="NV" speedFactor="1.00" vaporized=""/>
    <tripinfo id="OD58_NV.0" depart="56.00" departLane="top4E4_0" departPos="5.10" departSpeed="10.00" departDelay="0.32" arrival="176.00" arrivalLane="E4right4_2" arrivalPos="286.40" arrivalSpeed="13.06" duration="120.00" routeLength="592.21" waitingTime="69.00" waitingCount="1" stopTime="0.00" timeLoss="75.93" rerouteNo="0" devices="tripinfo_OD58_NV.0" vType="NV" speedFactor="1.00" vaporized=""/>
    <tripinfo id="OD236_RV.0" depart="47.00" departLane="top2C4_0" departPos="5.10" departSpeed="10.00" departDelay="0.58" arrival="178.00" arrivalLane="A4top0_0" arrivalPos="286.40" arrivalSpeed="13.15" duration="131.00" routeLength="1158.56" waitingTime="30.00" waitingCount="1" stopTime="0.00" timeLoss="46.10" rerouteNo="0" devices="tripinfo_OD236_RV.0" vType="RV" speedFactor="1.00" vaporized=""/>
    <tripinfo id="OD351_NV.1" depart="55.00" departLane="right2E2_0" departPos="5.10" departSpeed="10.00" departDelay="0.34" arrival="178.00" arrivalLane="E1right1_2" arrivalPos="286.40" arrivalSpeed="12.89" duration="123.00" routeLength="889.52" waitingTime="44.00" waitingCount="2" stopTime="0.00" timeLoss="56.90" rerouteNo="0" devices="tripinfo_OD351_NV.1" vType="NV" speedFactor="1.00" vaporized=""/>
    <tripinfo id="OD130_NV.1" depart="65.00" departLane="right4E4_0" departPos="5.10" departSpeed="10.00" departDelay="0.19" arrival="178.00" arrivalLane="E3right3_2" arrivalPos="286.40" arrivalSpeed="13.10" duration="113.00" routeLength="889.52" waitingTime="31.00" waitingCount="2" stopTime="0.00" timeLoss="47.43" rerouteNo="0" devices="tripinfo_OD130_NV.1" vType="NV" speedFactor="1.00" vaporized=""/>
    <tripinfo id="OD214_NV.0" depart="108.00" departLane="bottom1B0_0" departPos="5.10" departSpeed="10.00" departDelay="0.85" arrival="178.00" arrivalLane="C0bottom2_0" arrivalPos="286.40" arrivalSpeed="13.52" duration="70.00" routeLength="858.56" waitingTime="0.00" waitingCount="0" stopTime="0.00" timeLoss="7.16" rerouteNo="0" devices="tripinfo_OD214_NV.0" vType="NV" speedFactor="1.00" vaporized=""/>
    <tripinfo id="OD351_NV.2" depart="65.00" departLane="right2E2_0" departPos="5.10" departSpeed="10.00" departDelay="0.80" arrival="180.00" arrivalLane="E1right1_2" arrivalPos="286.40" arrivalSpeed="12.91" duration="115.00" routeLength="889.52" waitingTime="34.00" waitingCount="2" stopTime="0.00" timeLoss="49.19" rerouteNo="0" devices="tripinfo_OD351_NV.2" vType="NV" speedFactor="1.00" vaporized=""/>
    <tripinfo id="OD236_NV.1" depart="60.00" departLane="top2C4_0" departPos="5.10" departSpeed="10.00" departDelay="0.98" arrival="181.00" arrivalLane="A4top0_0" arrivalPos="286.40" arrivalSpeed="13.17" duration="121.00" routeLength="1158.56" waitingTime="19.00" waitingCount="1" stopTime="0.00" timeLoss="35.41" rerouteNo="0" devices="tripinfo_OD236_NV.1" vType="NV" speedFactor="1.00" vaporized=""/>
    <tripinfo id="OD142_NV.0" depart="79.00" departLane="left0A0_0" departPos="5.10" departSpeed="10.00" departDelay="0.83" arrival="181.00" arrivalLane="B0bottom1_0" arrivalPos="286.40" arrivalSpeed="13.67" duration="102.00" routeLength="876.73" waitingTime="25.00" waitingCount="1" stopTime="0.00" timeLoss="37.45" rerouteNo="0" devices="tripinfo_OD142_NV.0" vType="NV" speedFactor="1.00" vaporized=""/>
    <tripinfo id="OD377_NV.1" depart="110.00" departLane="left4A4_0" departPos="5.10" departSpeed="10.00" departDelay="0.03" arrival="181.00" arrivalLane="A3left3_0" arrivalPos="286.40" arrivalSpeed="13.01" duration="71.00" routeLength="858.56" waitingTime="0.00" waitingCount="0" stopTime="0.00" timeLoss="7.54" rerouteNo="0" devices="tripinfo_OD377_NV.1" vType="NV" speedFactor="1.00" vaporized=""/>
    <tripinfo id="OD105_NV.1" depart="111.00" departLane="right1E1_0" departPos="5.10" departSpeed="10.00" departDelay="0.23" arrival="182.00" arrivalLane="E2right2_0" arrivalPos="286.40" arrivalSpeed="13.14" duration="71.00" routeLength="858.56" waitingTime="0.00" waitingCount="0" stopTime="0.00" timeLoss="7.01" rerouteNo="0" devices="tripinfo_OD105_NV.1" vType="NV" speedFactor="1.00" vaporized=""/>
    <tripinfo id="OD201_NV.1" depart="113.00" departLane="top3D4_0" departPos="5.10" departSpeed="10.00" departDelay="0.52" arrival="183.00" arrivalLane="C4top2_0" arrivalPos="286.40" arrivalSpeed="12.75" duration="70.00" routeLength="858.56" waitingTime="0.00" waitingCount="0" stopTime="0.00" timeLoss="6.46" rerouteNo="0" devices="tripinfo_OD201_NV.1" vType="NV" speedFactor="1.00" vaporized=""/>
    <tripinfo id="OD248_RV.0" depart="117.00" departLane="right3E3_0" departPos="5.10" departSpeed="10.00" departDelay="0.11" arrival="187.00" arrivalLane="E4right4_0" arrivalPos="286.40" arrivalSpeed="13.50" duration="70.00" routeLength="858.56" waitingTime="0.00" waitingCount="0" stopTime="0.00" timeLoss="6.61" rerouteNo="0" devices="tripinfo_OD248_RV.0" vType="RV" speedFactor="1.00" vaporized=""/>
    <tripinfo id="OD142_NV.1" depart="118.00" departLane="left0A0_0" departPos="5.10" departSpeed="10.00" departDelay="0.63" arrival="187.00" arrivalLane="B0bottom1_0" arrivalPos="286.40" arrivalSpeed="13.39" duration="69.00" routeLength="876.73" waitingTime="0.00" waitingCount="0" stopTime="0.00" timeLoss="5.14" rerouteNo="0" devices="tripinfo_OD142_NV.1" vType="NV" speedFactor="1.00" vaporized=""/>
    <tripinfo id="OD190_NV.0" depart="99.00" departLane="top3D4_0" departPos="5.10" departSpeed="10.00" departDelay="0.94" arrival="192.00" arrivalLane="B4top1_0" arrivalPos="286.40" arrivalSpeed="13.42" duration="93.00" routeLength="1158.56" waitingTime="0.00" waitingCount="0" stopTime="0.00" timeLoss="8.03" rerouteNo="0" devices="tripinfo_OD190_NV.0" vType="NV" speedFactor="1.00" vaporized=""/>
    <tripinfo id="OD105_RV.0" depart="124.00" departLane="right1E1_0" departPos="5.10" departSpeed="10.00" departDelay="0.96" arrival="195.00" arrivalLane="E2right2_0" arrivalPos="286.40" arrivalSpeed="13.39" duration="71.00" routeLength="858.56" waitingTime="0.00" waitingCount="0" stopTime="0.00" timeLoss="6.42" rerouteNo="0" devices="tripinfo_OD105_RV.0" vType="RV" speedFactor="1.00" vaporized=""/>
    <tripinfo id="OD90_NV.0" depart="125.00" departLane="left1A1_0" departPos="5.10" departSpeed="10.00" departDelay="0.99" arrival="196.00" arrivalLane="A0left0_0" arrivalPos="286.40" arrivalSpeed="12.76" duration="71.00" routeLength="858.56" waitingTime="0.00" waitingCount="0" stopTime="0.00" timeLoss="7.82" rerouteNo="0" devices="tripinfo_OD90_NV.0" vType="NV" speedFactor="1.00" vaporized=""/>
    <tripinfo id="OD85_NV.0" depart="47.00" departLane="left1A1_0" departPos="5.10" departSpeed="10.00" departDelay="0.76" arrival="200.00" arrivalLane="B0bottom1_0" arrivalPos="286.40" arrivalSpeed="13.70" duration="153.00" routeLength="1155.87" waitingTime="55.00" waitingCount="1" stopTime="0.00" timeLoss="67.47" rerouteNo="0" devices="tripinfo_OD85_NV.0" vType="NV" speedFactor="1.00" vaporized=""/>
    <tripinfo id="OD45_RV.0" depart="10.00" departLane="left3A3_0" departPos="5.10" departSpeed="10.00" departDelay="0.93" arrival="201.00" arrivalLane="A4top0_1" arrivalPos="286.40" arrivalSpeed="12.66" duration="191.00" routeLength="892.21" waitingTime="111.00" waitingCount="2" stopTime="0.00" timeLoss="125.84" rerouteNo="0" devices="tripinfo_OD45_RV.0" vType="RV" speedFactor="1.00" vaporized=""/>
    <tripinfo id="OD100_NV.0" depart="77.00" departLane="right1E1_0" departPos="5.10" departSpeed="10.00" departDelay="0.84" arrival="201.00" arrivalLane="E0bottom4_1" arrivalPos="286.40" arrivalSpeed="13.57" duration="124.00" routeLength="892.21" waitingTime="45.00" waitingCount="1" stopTime="0.00" timeLoss="58.79" rerouteNo="0" devices="tripinfo_OD100_NV.0" vType="NV" speedFactor="1.00" vaporized=""/>
    <tripinfo id="OD214_NV.1" depart="131.00" departLane="bottom1B0_0" departPos="5.10" departSpeed="10.00" departDelay="0.24" arrival="201.00" arrivalLane="C0bottom2_0" arrivalPos="286.40" arrivalSpeed="13.73" duration="70.00" routeLength="858.56" waitingTime="0.00" waitingCount="0" stopTime="0.00" timeLoss="6.60" rerouteNo="0" devices="tripinfo_OD214_NV.1" vType="NV" speedFactor="1.00" vaporized=""/>
    <tripinfo id="OD45_NV.0" depart="43.00" departLane="left3A3_0" departPos="5.10" departSpeed="10.00" departDelay="0.91" arrival="203.00" arrivalLane="A4top0_1" arrivalPos="286.40" arrivalSpeed="13.23" duration="160.00" routeLength="892.21" waitingTime="80.00" waitingCount="2" stopTime="0.00" timeLoss="94.71" rerouteNo="0" devices="tripinfo_OD45_NV.0" vType="NV" speedFactor="1.00" vaporized=""/>
    <tripinfo id="OD359_RV.0" depart="135.00" departLane="right2E2_0" departPos="5.10" departSpeed="10.00" departDelay="0.48" arrival="205.00" arrivalLane="E3right3_0" arrivalPos="286.40" arrivalSpeed="12.63" duration="70.00" routeLength="858.56" waitingTime="0.00" waitingCount="0" stopTime="0.00" timeLoss="6.60" rerouteNo="0" devices="tripinfo_OD359_RV.0" vType="RV" speedFactor="1.00" vaporized=""/>
    <tripinfo id="OD311_NV.0" depart="135.00" departLane="left2A2_0" departPos="5.10" departSpeed="10.00" departDelay="0.57" arrival="206.00" arrivalLane="A1left1_0" arrivalPos="286.40" arrivalSpeed="13.87" duration="71.00" routeLength="858.56" waitingTime="0.00" waitingCount="0" stopTime="0.00" timeLoss="7.39" rerouteNo="0" devices="tripinfo_OD311_NV.0" vType="NV" speedFactor="1.00" vaporized=""/>
    <tripinfo id="OD59_NV.1" depart="146.00" departLane="top4E4_0" departPos="5.10" departSpeed="10.00" departDelay="0.55" arrival="217.00" arrivalLane="D4top3_0" arrivalPos="286.40" arrivalSpeed="13.89" duration="71.00" routeLength="858.56" waitingTime="0.00" waitingCount="0" stopTime="0.00" timeLoss="6.86" rerouteNo="0" devices="tripinfo_OD59_NV.1" vType="NV" speedFactor="1.00" vaporized=""/>
    <tripinfo id="OD37_NV.0" depart="174.00" departLane="bottom4E0_0" departPos="5.10" departSpeed="10.00" departDelay="0.65" arrival="221.00" arrivalLane="E0right0_0" arrivalPos="286.40" arrivalSpeed="13.35" duration="47.00" routeLength="576.73" waitingTime="0.00" waitingCount="0" stopTime="0.00" timeLoss="4.07" rerouteNo="0" devices="tripinfo_OD37_NV.0" vType="NV" speedFactor="1.00" vaporized=""/>
    <tripinfo id="OD29_NV.0" depart="16.00" departLane="bottom4E0_0" departPos="5.10" departSpeed="10.00" departDelay="0.63" arrival="225.00" arrivalLane="E2right2_0" arrivalPos="286.40" arrivalSpeed="13.82" duration="209.00" routeLength="1176.73" waitingTime="106.00" waitingCount="2" stopTime="0.00" timeLoss="122.60" rerouteNo="0" devices="tripinfo_OD29_NV.0" vType="NV" speedFactor="1.00" vaporized=""/>
    <tripinfo id="OD38_NV.0" depart="21.00" departLane="left3A3_0" departPos="5.10" departSpeed="10.00" departDelay="0.85" arrival="226.00" arrivalLane="B4top1_2" arrivalPos="286.40" arrivalSpeed="13.29" duration="205.00" routeLength="1171.35" waitingTime="101.00" waitingCount="2" stopTime="0.00" timeLoss="118.58" rerouteNo="0" devices="tripinfo_OD38_NV.0" vType="NV" speedFactor="1.00" vaporized=""/>
    <tripinfo id="OD1_NV.0" depart="37.00" departLane="top1B4_0" departPos="5.10" departSpeed="10.00" departDelay="0.51" arrival="226.00" arrivalLane="D4top3_2" arrivalPos="286.40" arrivalSpeed="12.84" duration="189.00" routeLength="1189.52" waitingTime="84.00" waitingCount="2" stopTime="0.00" timeLoss="101.72" rerouteNo="0" devices="tripinfo_OD1_NV.0" vType="NV" speedFactor="1.00" vaporized=""/>
    <tripinfo id="OD319_NV.0" depart="55.00" departLane="left2A2_0" departPos="5.10" departSpeed="10.00" departDelay="0.72" arrival="226.00" arrivalLane="A0left0_0" arrivalPos="286.40" arrivalSpeed="12.51" duration="171.00" routeLength="1158.56" waitingTime="71.00" waitingCount="1" stopTime="0.00" timeLoss="86.34" rerouteNo="0" devices="tripinfo_OD319_NV.0" vType="NV" speedFactor="1.00" vaporized=""/>
    <tripinfo id="OD193_NV.0" depart="67.00" departLane="top3D4_0" departPos="5.10" departSpeed="10.00" departDelay="0.11" arrival="226.00" arrivalLane="E4top4_2" arrivalPos="286.40" arrivalSpeed="13.43" duration="159.00" routeLength="889.52" waitingTime="79.00" waitingCount="2" stopTime="0.00" timeLoss="93.67" rerouteNo="0" devices="tripinfo_OD193_NV.0" vType="NV" speedFactor="1.00" vaporized=""/>
    <tripinfo id="OD271_NV.3" depart="91.00" departLane="bottom3D0_0" departPos="5.10" departSpeed="10.00" departDelay="0.06" arrival="226.00" arrivalLane="C0bottom2_2" arrivalPos="286.40" arrivalSpeed="13.88" duration="135.00" routeLength="889.52" waitingTime="54.00" waitingCount="2" stopTime="0.00" timeLoss="69.01" rerouteNo="0" devices="tripinfo_OD271_NV.3" vType="NV" speedFactor="1.00" vaporized=""/>
    <tripinfo id="OD36_NV.0" depart="114.00" departLane="bottom4E0_0" departPos="5.10" departSpeed="10.00" departDelay="0.83" arrival="226.00" arrivalLane="D0bottom3_2" arrivalPos="286.40" arrivalSpeed="12.49" duration="112.00" routeLength="889.52" waitingTime="30.00" waitingCount="2" stopTime="0.00" timeLoss="46.08" rerouteNo="0" devices="tripinfo_OD36_NV.0" vType="NV" speedFactor="1.00" vaporized=""/>
    <tripinfo id="OD29_NV.1" depart="36.00" departLane="bottom4E0_0" departPos="5.10" departSpeed="10.00" departDelay="0.64" arrival="227.00" arrivalLane="E2right2_0" arrivalPos="286.40" arrivalSpeed="13.74" duration="191.00" routeLength="1176.73" waitingTime="89.00" waitingCount="2" stopTime="0.00" timeLoss="104.72" rerouteNo="0" devices="tripinfo_OD29_NV.1" vType="NV" speedFactor="1.00" vaporized=""/>
    <tripinfo id="OD38_NV.1" depart="44.00" departLane="left3A3_0" departPos="5.10" departSpeed="10.00" departDelay="1.21" arrival="228.00" arrivalLane="B4top1_2" arrivalPos="286.40" arrivalSpeed="13.38" duration="184.00" routeLength="1171.35" waitingTime="77.00" waitingCount="2" stopTime="0.00" timeLoss="97.49" rerouteNo="0" devices="tripinfo_OD38_NV.1" vType="NV" speedFactor="1.00" vaporized=""/>
    <tripinfo id="OD271_NV.4" depart="123.00" departLane="bottom3D0_0" departPos="5.10" departSpeed="10.00" departDelay="0.67" arrival="228.00" arrivalLane="C0bottom2_2" arrivalPos="286.40" arrivalSpeed="12.96" duration="105.00" routeLength="889.52" waitingTime="24.00" waitingCount="2" stopTime="0.00" timeLoss="39.39" rerouteNo="0" devices="tripinfo_OD271_NV.4" vType="NV" speedFactor="1.00" vaporized=""/>
    <tripinfo id="OD230_NV.0" depart="126.00" departLane="top2C4_0" departPos="5.10" departSpeed="10.00" departDelay="0.89" arrival="228.00" arrivalLane="D4top3_2" arrivalPos="286.40" arrivalSpeed="13.52" duration="102.00" routeLength="889.52" waitingTime="19.00" waitingCount="2" stopTime="0.00" timeLoss="36.27" rerouteNo="0" devices="tripinfo_OD230_NV.0" vType="NV" speedFactor="1.00" vaporized=""/>